LAMMPS data file via write_data, version 29 Aug 2024, timestep = 20, units = metal

4999 atoms
3 atom types

-0.009904161840543243 39.72840986184054 xlo xhi
-0.009904161840548617 39.72840986184055 ylo yhi
0.008071158587284182 40.684554541412716 zlo zhi
1.6836326638859308e-15 1.8774186826882873e-14 2.876693688235185e-14 xy xz yz

Masses

1 137.327
2 15.999
3 47.867

Atoms # charge

2 2 -2 1.9770115393435304 1.9770115393434928 0.13094450502000624 0 0 0
502 2 -2 1.9770115393435344 1.9770115393435013 4.19859284330267 0 0 0
6 1 2 3.9639272405275516 -0.00990416184052161 0.00813928108060769 0 0 0
506 1 2 3.9639272405275574 -0.00990416184049792 4.075787619363107 0 0 0
56 1 2 3.9639272405275494 3.9639272405275694 0.008139281080605151 0 0 0
556 1 2 3.9639272405275574 3.963927240527569 4.075787619363104 0 0 0
5 3 4 1.9770115393434768 1.9770115393435514 1.9760375312053398 0 0 0
505 3 4 1.9770115393434768 1.9770115393435916 6.043685869487803 0 0 0
53 2 -2 1.977011539343528 3.9639272405275454 2.1165561160772377 0 0 0
553 2 -2 1.9770115393435361 3.963927240527589 6.1842044543598105 0 0 0
9 2 -2 3.9639272405275725 1.9770115393435006 2.1165561160772346 0 0 0
509 2 -2 3.9639272405275516 1.9770115393434977 6.184204454359804 0 0 0
4 2 -2 -0.00990416184047204 1.9770115393434995 2.1165561160772346 0 0 0
504 2 -2 -0.009904161840461502 1.9770115393434988 6.1842044543598105 0 0 0
7 2 -2 5.95084294171163 1.977011539343495 0.1309445050200053 0 0 0
507 2 -2 5.950842941711626 1.9770115393434966 4.19859284330264 0 0 0
11 1 2 7.937758642895665 -0.009904161840520325 0.008139281080603945 0 0 0
511 1 2 7.937758642895666 -0.009904161840494639 4.075787619363113 0 0 0
61 1 2 7.937758642895665 3.963927240527571 0.008139281080603999 0 0 0
561 1 2 7.937758642895666 3.9639272405275667 4.075787619363113 0 0 0
10 3 4 5.950842941711593 1.9770115393435457 1.976037531205352 0 0 0
510 3 4 5.950842941711634 1.9770115393435916 6.043685869487841 0 0 0
58 2 -2 5.950842941711626 3.963927240527549 2.1165561160772346 0 0 0
558 2 -2 5.95084294171162 3.963927240527591 6.184204454359804 0 0 0
14 2 -2 7.937758642895706 1.9770115393434995 2.1165561160772315 0 0 0
514 2 -2 7.937758642895674 1.9770115393434955 6.1842044543598 0 0 0
15 3 4 9.924674344079696 1.9770115393435468 1.976037531205368 0 0 0
515 3 4 9.924674344079728 1.9770115393436087 6.043685869487869 0 0 0
12 2 -2 9.92467434407973 1.9770115393434908 0.13094450502000032 0 0 0
563 2 -2 9.92467434407973 3.963927240527591 6.184204454359798 0 0 0
63 2 -2 9.92467434407976 3.963927240527549 2.1165561160772346 0 0 0
512 2 -2 9.924674344079737 1.9770115393434966 4.198592843302619 0 0 0
16 1 2 11.911590045263791 -0.009904161840523052 0.008139281080600481 0 0 0
17 2 -2 13.898505746447832 1.977011539343492 0.13094450502000507 0 0 0
516 1 2 11.911590045263793 -0.009904161840495045 4.075787619363117 0 0 0
517 2 -2 13.898505746447825 1.9770115393434955 4.198592843302624 0 0 0
66 1 2 11.911590045263791 3.963927240527571 0.008139281080602396 0 0 0
566 1 2 11.911590045263793 3.963927240527569 4.075787619363117 0 0 0
19 2 -2 11.911590045263798 1.9770115393434993 2.1165561160772284 0 0 0
20 3 4 13.898505746447938 1.9770115393435421 1.9760375312053686 0 0 0
519 2 -2 11.911590045263761 1.9770115393434937 6.184204454359798 0 0 0
520 3 4 13.898505746447913 1.9770115393435983 6.043685869487869 0 0 0
68 2 -2 13.898505746447865 3.963927240527542 2.1165561160772315 0 0 0
568 2 -2 13.89850574644785 3.9639272405275845 6.184204454359792 0 0 0
21 1 2 15.8854214476319 -0.009904161840520766 0.00813928108061255 0 0 0
22 2 -2 17.87233714881594 1.977011539343492 0.1309445050199922 0 0 0
521 1 2 15.8854214476319 -0.009904161840494068 4.075787619363117 0 0 0
522 2 -2 17.87233714881593 1.9770115393434933 4.198592843302624 0 0 0
71 1 2 15.8854214476319 3.9639272405275716 0.008139281080612673 0 0 0
571 1 2 15.8854214476319 3.963927240527571 4.075787619363117 0 0 0
24 2 -2 15.885421447631884 1.977011539343497 2.1165561160772253 0 0 0
25 3 4 17.872337148815983 1.9770115393435468 1.9760375312053728 0 0 0
524 2 -2 15.885421447631932 1.9770115393434935 6.184204454359787 0 0 0
525 3 4 17.872337148815987 1.977011539343611 6.043685869487889 0 0 0
73 2 -2 17.87233714881594 3.963927240527544 2.1165561160772284 0 0 0
573 2 -2 17.872337148815976 3.9639272405275867 6.184204454359792 0 0 0
29 2 -2 19.85925284999996 1.977011539343497 2.1165561160772253 0 0 0
529 2 -2 19.859252849999965 1.9770115393434926 6.184204454359787 0 0 0
76 1 2 19.859252850000004 3.9639272405275734 0.008139281080612407 0 0 0
526 1 2 19.859252850000082 -0.009904161840492046 4.075787619363117 0 0 0
576 1 2 19.859252850000082 3.963927240527571 4.0757876193631235 0 0 0
26 1 2 19.859252850000015 -0.009904161840519222 0.008139281080613854 0 0 0
27 2 -2 21.84616855118404 1.977011539343493 0.13094450501997026 0 0 0
527 2 -2 21.846168551184103 1.9770115393434955 4.19859284330263 0 0 0
31 1 2 23.833084252368117 -0.00990416184052308 0.00813928108062336 0 0 0
531 1 2 23.833084252368195 -0.009904161840495787 4.07578761936313 0 0 0
81 1 2 23.83308425236811 3.963927240527569 0.008139281080622507 0 0 0
581 1 2 23.833084252368177 3.963927240527569 4.07578761936313 0 0 0
30 3 4 21.846168551184125 1.9770115393435548 1.976037531205392 0 0 0
530 3 4 21.84616855118422 1.9770115393436087 6.043685869487866 0 0 0
78 2 -2 21.84616855118404 3.9639272405275374 2.116556116077222 0 0 0
578 2 -2 21.846168551184075 3.9639272405275756 6.184204454359792 0 0 0
34 2 -2 23.8330842523681 1.9770115393435006 2.1165561160772106 0 0 0
534 2 -2 23.833084252368113 1.9770115393434966 6.184204454359779 0 0 0
32 2 -2 25.819999953552156 1.9770115393434962 0.1309445050199664 0 0 0
532 2 -2 25.819999953552216 1.9770115393435013 4.198592843302618 0 0 0
36 1 2 27.806915654736226 -0.00990416184052639 0.008139281080630126 0 0 0
536 1 2 27.806915654736294 -0.009904161840503353 4.075787619363136 0 0 0
86 1 2 27.806915654736226 3.9639272405275636 0.008139281080630957 0 0 0
586 1 2 27.806915654736294 3.963927240527564 4.075787619363136 0 0 0
35 3 4 25.819999953552134 1.9770115393435386 1.9760375312054053 0 0 0
535 3 4 25.819999953552195 1.9770115393435883 6.043685869487889 0 0 0
83 2 -2 25.819999953552156 3.9639272405275534 2.1165561160772137 0 0 0
583 2 -2 25.819999953552195 3.9639272405275983 6.184204454359779 0 0 0
39 2 -2 27.806915654736216 1.977011539343505 2.1165561160772097 0 0 0
539 2 -2 27.80691565473625 1.9770115393435 6.184204454359775 0 0 0
37 2 -2 29.793831355920272 1.9770115393434975 0.13094450501996693 0 0 0
88 2 -2 29.793831355920272 3.9639272405275556 2.1165561160772097 0 0 0
537 2 -2 29.793831355920332 1.9770115393435013 4.198592843302599 0 0 0
40 3 4 29.7938313559204 1.9770115393435366 1.9760375312054084 0 0 0
540 3 4 29.793831355920435 1.9770115393435916 6.043685869487923 0 0 0
588 2 -2 29.79383135592029 3.9639272405275867 6.184204454359773 0 0 0
41 1 2 31.780747057104364 -0.009904161840521506 0.008139281080633694 0 0 0
42 2 -2 33.767662758288374 1.977011539343492 0.1309445050199678 0 0 0
541 1 2 31.780747057104413 -0.00990416184049563 4.075787619363136 0 0 0
542 2 -2 33.767662758288395 1.9770115393434966 4.198592843302616 0 0 0
91 1 2 31.780747057104378 3.9639272405275667 0.008139281080638277 0 0 0
591 1 2 31.780747057104442 3.963927240527564 4.07578761936313 0 0 0
44 2 -2 31.780747057104183 1.9770115393435017 2.1165561160772075 0 0 0
45 3 4 33.767662758288466 1.9770115393435548 1.9760375312053928 0 0 0
544 2 -2 31.780747057104218 1.9770115393434988 6.184204454359775 0 0 0
545 3 4 33.76766275828836 1.9770115393436076 6.043685869487882 0 0 0
93 2 -2 33.767662758288395 3.963927240527551 2.116556116077217 0 0 0
593 2 -2 33.767662758288274 3.9639272405275845 6.184204454359787 0 0 0
1 1 2 39.72840986184051 -0.00990416184051978 0.0081392810806063 -1 0 0
501 1 2 39.72840986184051 -0.009904161840496584 4.075787619363107 -1 0 0
51 1 2 39.72840986184051 3.9639272405275694 0.008139281080603819 -1 0 0
551 1 2 39.72840986184051 3.963927240527569 4.075787619363107 -1 0 0
46 1 2 35.75457845947244 -0.00990416184051836 0.008139281080620871 0 0 0
47 2 -2 37.741494160656494 1.977011539343494 0.13094450501999888 0 0 0
546 1 2 35.75457845947242 -0.009904161840494294 4.0757876193631235 0 0 0
547 2 -2 37.74149416065652 1.9770115393434977 4.1985928433026425 0 0 0
96 1 2 35.75457845947244 3.963927240527569 0.008139281080620304 0 0 0
596 1 2 35.75457845947242 3.963927240527564 4.075787619363119 0 0 0
49 2 -2 35.754578459472455 1.9770115393435017 2.116556116077217 0 0 0
50 3 4 37.741494160656366 1.9770115393435514 1.976037531205368 0 0 0
549 2 -2 35.75457845947236 1.9770115393434966 6.184204454359792 0 0 0
550 3 4 37.741494160656224 1.977011539343585 6.043685869487844 0 0 0
98 2 -2 37.74149416065651 3.9639272405275454 2.1165561160772293 0 0 0
598 2 -2 37.74149416065641 3.9639272405275867 6.184204454359804 0 0 0
52 2 -2 1.9770115393435281 5.950842941711614 0.13094450502001723 0 0 0
552 2 -2 1.977011539343534 5.9508429417116036 4.1985928433026745 0 0 0
106 1 2 3.9639272405275494 7.9377586428956635 0.008139281080610045 0 0 0
606 1 2 3.9639272405275556 7.93775864289566 4.075787619363107 0 0 0
55 3 4 1.9770115393434768 5.950842941711619 1.9760375312053347 0 0 0
555 3 4 1.977011539343479 5.950842941711657 6.043685869487825 0 0 0
103 2 -2 1.977011539343526 7.937758642895685 2.1165561160772355 0 0 0
603 2 -2 1.97701153934354 7.937758642895635 6.184204454359804 0 0 0
59 2 -2 3.9639272405275814 5.950842941711614 2.1165561160772386 0 0 0
559 2 -2 3.963927240527564 5.950842941711616 6.184204454359804 0 0 0
54 2 -2 -0.009904161840471855 5.950842941711614 2.1165561160772386 0 0 0
554 2 -2 -0.009904161840452523 5.950842941711616 6.184204454359804 0 0 0
105 3 4 1.9770115393434804 9.924674344079692 1.9760375312053564 0 0 0
602 2 -2 1.977011539343534 9.924674344079724 4.198592843302649 0 0 0
609 2 -2 3.963927240527543 9.924674344079726 6.184204454359804 0 0 0
604 2 -2 -0.009904161840452333 9.924674344079726 6.184204454359804 0 0 0
57 2 -2 5.950842941711624 5.95084294171161 0.13094450502001723 0 0 0
557 2 -2 5.950842941711626 5.950842941711608 4.198592843302643 0 0 0
111 1 2 7.93775864289567 7.937758642895667 0.008139281080604485 0 0 0
611 1 2 7.937758642895671 7.937758642895664 4.075787619363113 0 0 0
60 3 4 5.950842941711593 5.950842941711619 1.976037531205344 0 0 0
560 3 4 5.950842941711629 5.950842941711666 6.043685869487866 0 0 0
108 2 -2 5.950842941711626 7.937758642895676 2.116556116077237 0 0 0
608 2 -2 5.950842941711616 7.937758642895628 6.184204454359798 0 0 0
64 2 -2 7.937758642895702 5.950842941711614 2.1165561160772346 0 0 0
564 2 -2 7.937758642895662 5.950842941711616 6.184204454359798 0 0 0
65 3 4 9.924674344079696 5.950842941711624 1.9760375312053489 0 0 0
110 3 4 5.9508429417116115 9.924674344079701 1.9760375312053615 0 0 0
115 3 4 9.924674344079701 9.924674344079698 1.9760375312053655 0 0 0
607 2 -2 5.950842941711627 9.924674344079724 4.198592843302624 0 0 0
562 2 -2 9.924674344079726 5.9508429417116036 4.198592843302638 0 0 0
614 2 -2 7.937758642895657 9.924674344079726 6.184204454359792 0 0 0
62 2 -2 9.92467434407973 5.950842941711614 0.13094450502001856 0 0 0
613 2 -2 9.92467434407973 7.9377586428956235 6.184204454359792 0 0 0
612 2 -2 9.92467434407973 9.924674344079724 4.198592843302624 0 0 0
565 3 4 9.924674344079744 5.950842941711657 6.043685869487882 0 0 0
113 2 -2 9.92467434407976 7.937758642895666 2.1165561160772324 0 0 0
67 2 -2 13.898505746447825 5.9508429417116115 0.1309445050200197 0 0 0
567 2 -2 13.898505746447816 5.9508429417116036 4.1985928433026425 0 0 0
116 1 2 11.911590045263786 7.937758642895664 0.008139281080607668 0 0 0
616 1 2 11.911590045263793 7.937758642895664 4.075787619363117 0 0 0
69 2 -2 11.91159004526379 5.950842941711614 2.1165561160772346 0 0 0
70 3 4 13.898505746447938 5.950842941711624 1.976037531205344 0 0 0
569 2 -2 11.911590045263761 5.950842941711614 6.184204454359792 0 0 0
570 3 4 13.898505746447913 5.950842941711666 6.04368586948788 0 0 0
118 2 -2 13.898505746447865 7.937758642895671 2.1165561160772284 0 0 0
618 2 -2 13.89850574644785 7.937758642895628 6.184204454359787 0 0 0
120 3 4 13.89850574644793 9.924674344079701 1.9760375312053777 0 0 0
617 2 -2 13.898505746447825 9.924674344079724 4.198592843302616 0 0 0
619 2 -2 11.911590045263761 9.924674344079726 6.184204454359787 0 0 0
72 2 -2 17.87233714881594 5.950842941711614 0.13094450502000174 0 0 0
572 2 -2 17.87233714881596 5.950842941711608 4.198592843302632 0 0 0
121 1 2 15.88542144763191 7.937758642895664 0.008139281080618876 0 0 0
621 1 2 15.8854214476319 7.937758642895664 4.075787619363117 0 0 0
74 2 -2 15.885421447631884 5.950842941711614 2.116556116077226 0 0 0
75 3 4 17.872337148815983 5.950842941711624 1.9760375312053575 0 0 0
574 2 -2 15.885421447631932 5.950842941711614 6.184204454359786 0 0 0
575 3 4 17.872337148815987 5.950842941711651 6.0436858694878985 0 0 0
123 2 -2 17.87233714881596 7.937758642895676 2.1165561160772253 0 0 0
623 2 -2 17.872337148815987 7.937758642895637 6.184204454359787 0 0 0
79 2 -2 19.85925284999996 5.950842941711614 2.1165561160772284 0 0 0
579 2 -2 19.859252849999965 5.950842941711619 6.184204454359787 0 0 0
125 3 4 17.87233714881595 9.924674344079698 1.9760375312053666 0 0 0
622 2 -2 17.87233714881596 9.924674344079724 4.198592843302624 0 0 0
624 2 -2 15.885421447631959 9.924674344079726 6.184204454359779 0 0 0
629 2 -2 19.859252849999983 9.924674344079726 6.184204454359787 0 0 0
626 1 2 19.859252850000082 7.93775864289566 4.0757876193631235 0 0 0
126 1 2 19.859252850000015 7.937758642895659 0.0081392810806212 0 0 0
77 2 -2 21.846168551184043 5.950842941711616 0.1309445050199929 0 0 0
577 2 -2 21.846168551184103 5.950842941711608 4.198592843302649 0 0 0
131 1 2 23.83308425236811 7.93775864289566 0.008139281080628188 0 0 0
631 1 2 23.833084252368177 7.93775864289566 4.07578761936313 0 0 0
80 3 4 21.846168551184125 5.950842941711624 1.9760375312053728 0 0 0
580 3 4 21.846168551184224 5.950842941711661 6.043685869487869 0 0 0
128 2 -2 21.84616855118404 7.93775864289568 2.116556116077222 0 0 0
628 2 -2 21.846168551184075 7.937758642895637 6.184204454359786 0 0 0
84 2 -2 23.83308425236811 5.950842941711619 2.1165561160772137 0 0 0
584 2 -2 23.83308425236813 5.95084294171162 6.184204454359779 0 0 0
130 3 4 21.846168551184125 9.924674344079696 1.976037531205387 0 0 0
627 2 -2 21.846168551184103 9.924674344079724 4.198592843302626 0 0 0
634 2 -2 23.83308425236813 9.924674344079726 6.184204454359775 0 0 0
82 2 -2 25.81999995355217 5.950842941711617 0.13094450501999114 0 0 0
582 2 -2 25.81999995355222 5.950842941711608 4.19859284330263 0 0 0
136 1 2 27.806915654736226 7.937758642895658 0.008139281080636161 0 0 0
636 1 2 27.806915654736294 7.9377586428956555 4.075787619363136 0 0 0
85 3 4 25.819999953552117 5.950842941711605 1.9760375312053813 0 0 0
585 3 4 25.819999953552173 5.950842941711642 6.0436858694878985 0 0 0
133 2 -2 25.81999995355217 7.937758642895689 2.116556116077213 0 0 0
633 2 -2 25.819999953552195 7.937758642895646 6.184204454359775 0 0 0
89 2 -2 27.806915654736226 5.950842941711619 2.116556116077216 0 0 0
589 2 -2 27.80691565473625 5.950842941711624 6.184204454359775 0 0 0
87 2 -2 29.793831355920272 5.950842941711618 0.1309445050199677 0 0 0
138 2 -2 29.793831355920272 7.937758642895689 2.1165561160772097 0 0 0
135 3 4 25.819999953552117 9.924674344079692 1.976037531205413 0 0 0
632 2 -2 25.819999953552216 9.924674344079724 4.198592843302603 0 0 0
587 2 -2 29.793831355920332 5.950842941711612 4.198592843302611 0 0 0
637 2 -2 29.793831355920332 9.924674344079724 4.198592843302599 0 0 0
90 3 4 29.7938313559204 5.950842941711601 1.9760375312054022 0 0 0
590 3 4 29.793831355920435 5.950842941711642 6.043685869487936 0 0 0
638 2 -2 29.79383135592029 7.937758642895651 6.184204454359767 0 0 0
92 2 -2 33.76766275828836 5.950842941711617 0.1309445050199804 0 0 0
592 2 -2 33.767662758288395 5.950842941711608 4.19859284330263 0 0 0
141 1 2 31.780747057104378 7.9377586428956555 0.008139281080639405 0 0 0
641 1 2 31.780747057104442 7.9377586428956555 4.0757876193631315 0 0 0
94 2 -2 31.780747057104183 5.950842941711619 2.1165561160772124 0 0 0
95 3 4 33.767662758288466 5.9508429417115964 1.9760375312053746 0 0 0
594 2 -2 31.7807470571042 5.95084294171162 6.184204454359773 0 0 0
595 3 4 33.76766275828836 5.950842941711637 6.043685869487889 0 0 0
143 2 -2 33.767662758288374 7.937758642895698 2.116556116077217 0 0 0
643 2 -2 33.767662758288274 7.9377586428956555 6.184204454359779 0 0 0
140 3 4 29.7938313559204 9.924674344079692 1.9760375312054241 0 0 0
145 3 4 33.767662758288466 9.924674344079683 1.9760375312053964 0 0 0
101 1 2 39.728409861840525 7.937758642895659 0.008139281080612524 -1 0 0
601 1 2 39.72840986184051 7.93775864289566 4.075787619363107 -1 0 0
97 2 -2 37.741494160656494 5.950842941711614 0.13094450502000976 0 0 0
597 2 -2 37.74149416065652 5.950842941711608 4.19859284330265 0 0 0
146 1 2 35.75457845947244 7.9377586428956555 0.008139281080623192 0 0 0
646 1 2 35.75457845947242 7.9377586428956555 4.075787619363119 0 0 0
99 2 -2 35.754578459472455 5.950842941711619 2.116556116077222 0 0 0
100 3 4 37.74149416065638 5.950842941711614 1.9760375312053473 0 0 0
599 2 -2 35.75457845947236 5.950842941711619 6.184204454359792 0 0 0
600 3 4 37.741494160656224 5.950842941711657 6.043685869487853 0 0 0
148 2 -2 37.741494160656494 7.937758642895685 2.1165561160772284 0 0 0
648 2 -2 37.74149416065641 7.937758642895637 6.184204454359798 0 0 0
150 3 4 37.741494160656394 9.924674344079687 1.976037531205377 0 0 0
647 2 -2 37.74149416065651 9.924674344079724 4.198592843302638 0 0 0
605 3 4 1.977011539343473 9.924674344079753 6.04368586948785 0 0 0
102 2 -2 1.9770115393435272 9.924674344079735 0.13094450501999258 0 0 0
109 2 -2 3.9639272405275654 9.924674344079735 2.1165561160772346 0 0 0
152 2 -2 1.9770115393435297 13.89850574644785 0.13094450502001403 0 0 0
652 2 -2 1.9770115393435335 13.89850574644786 4.1985928433026425 0 0 0
156 1 2 3.9639272405275543 11.911590045263765 0.008139281080606364 0 0 0
656 1 2 3.96392724052756 11.91159004526376 4.075787619363117 0 0 0
153 2 -2 1.9770115393435224 11.911590045263793 2.1165561160772324 0 0 0
155 3 4 1.9770115393434924 13.898505746447809 1.9760375312053489 0 0 0
653 2 -2 1.9770115393435312 11.91159004526381 6.1842044543598 0 0 0
655 3 4 1.9770115393434862 13.8985057464477 6.043685869487857 0 0 0
159 2 -2 3.9639272405275436 13.898505746447846 2.1165561160772346 0 0 0
659 2 -2 3.963927240527548 13.898505746447858 6.184204454359792 0 0 0
104 2 -2 -0.009904161840471661 9.924674344079735 2.1165561160772324 0 0 0
154 2 -2 -0.009904161840480307 13.898505746447846 2.1165561160772346 0 0 0
654 2 -2 -0.009904161840460963 13.898505746447858 6.184204454359798 0 0 0
610 3 4 5.950842941711652 9.924674344079753 6.043685869487889 0 0 0
107 2 -2 5.95084294171163 9.924674344079735 0.1309445050200026 0 0 0
114 2 -2 7.937758642895697 9.924674344079735 2.1165561160772315 0 0 0
157 2 -2 5.95084294171163 13.89850574644785 0.13094450502001234 0 0 0
657 2 -2 5.950842941711624 13.89850574644786 4.19859284330263 0 0 0
161 1 2 7.937758642895685 11.911590045263768 0.008139281080607678 0 0 0
661 1 2 7.937758642895685 11.91159004526376 4.0757876193631235 0 0 0
158 2 -2 5.950842941711641 11.911590045263784 2.1165561160772315 0 0 0
160 3 4 5.9508429417116355 13.89850574644782 1.9760375312053489 0 0 0
658 2 -2 5.9508429417116275 11.91159004526381 6.184204454359792 0 0 0
660 3 4 5.950842941711652 13.8985057464477 6.043685869487876 0 0 0
164 2 -2 7.937758642895693 13.898505746447846 2.1165561160772284 0 0 0
664 2 -2 7.937758642895656 13.898505746447858 6.184204454359787 0 0 0
162 2 -2 9.924674344079717 13.898505746447846 0.13094450502000207 0 0 0
165 3 4 9.9246743440797 13.898505746447809 1.976037531205371 0 0 0
163 2 -2 9.924674344079728 11.911590045263793 2.1165561160772284 0 0 0
663 2 -2 9.924674344079728 11.911590045263802 6.184204454359787 0 0 0
662 2 -2 9.924674344079701 13.89850574644786 4.198592843302624 0 0 0
112 2 -2 9.92467434407973 9.924674344079735 0.13094450502000052 0 0 0
615 3 4 9.924674344079744 9.924674344079781 6.043685869487895 0 0 0
620 3 4 13.898505746447913 9.924674344079753 6.0436858694878985 0 0 0
665 3 4 9.924674344079744 13.898505746447702 6.043685869487889 0 0 0
117 2 -2 13.898505746447832 9.924674344079735 0.13094450501998547 0 0 0
119 2 -2 11.911590045263807 9.924674344079735 2.1165561160772293 0 0 0
166 1 2 11.911590045263782 11.911590045263765 0.008139281080610163 0 0 0
167 2 -2 13.898505746447832 13.898505746447846 0.1309445050199931 0 0 0
666 1 2 11.911590045263793 11.911590045263768 4.075787619363125 0 0 0
667 2 -2 13.898505746447825 13.89850574644786 4.198592843302618 0 0 0
168 2 -2 13.898505746447864 11.911590045263784 2.1165561160772253 0 0 0
169 2 -2 11.911590045263807 13.898505746447846 2.1165561160772284 0 0 0
170 3 4 13.89850574644793 13.898505746447828 1.976037531205374 0 0 0
668 2 -2 13.89850574644784 11.91159004526381 6.184204454359779 0 0 0
669 2 -2 11.911590045263761 13.898505746447858 6.184204454359786 0 0 0
670 3 4 13.898505746447913 13.898505746447722 6.043685869487904 0 0 0
625 3 4 17.872337148815976 9.924674344079753 6.043685869487904 0 0 0
122 2 -2 17.87233714881596 9.924674344079735 0.13094450501998808 0 0 0
124 2 -2 15.885421447631904 9.924674344079735 2.116556116077222 0 0 0
171 1 2 15.885421447631892 11.911590045263763 0.008139281080623312 0 0 0
172 2 -2 17.872337148815955 13.898505746447846 0.13094450501998206 0 0 0
671 1 2 15.885421447631892 11.91159004526376 4.07578761936313 0 0 0
672 2 -2 17.87233714881596 13.89850574644786 4.19859284330261 0 0 0
173 2 -2 17.87233714881594 11.911590045263793 2.116556116077219 0 0 0
174 2 -2 15.885421447631888 13.898505746447846 2.116556116077222 0 0 0
175 3 4 17.872337148815983 13.8985057464478 1.9760375312053715 0 0 0
673 2 -2 17.872337148815987 11.911590045263802 6.184204454359786 0 0 0
674 2 -2 15.885421447631932 13.898505746447858 6.184204454359775 0 0 0
675 3 4 17.87233714881596 13.898505746447713 6.043685869487916 0 0 0
129 2 -2 19.85925284999998 9.924674344079735 2.116556116077226 0 0 0
179 2 -2 19.85925284999998 13.898505746447846 2.1165561160772253 0 0 0
679 2 -2 19.859252849999983 13.89850574644785 6.184204454359779 0 0 0
176 1 2 19.859252850000004 11.911590045263768 0.008139281080623331 0 0 0
630 3 4 21.846168551184224 9.924674344079744 6.043685869487889 0 0 0
127 2 -2 21.846168551184043 9.924674344079735 0.13094450501997637 0 0 0
676 1 2 19.85925285000006 11.91159004526376 4.07578761936313 0 0 0
134 2 -2 23.833084252368117 9.924674344079735 2.1165561160772124 0 0 0
177 2 -2 21.84616855118404 13.898505746447846 0.13094450501999302 0 0 0
677 2 -2 21.846168551184103 13.89850574644786 4.198592843302613 0 0 0
181 1 2 23.8330842523681 11.911590045263768 0.008139281080624743 0 0 0
681 1 2 23.833084252368177 11.91159004526376 4.0757876193631395 0 0 0
178 2 -2 21.84616855118404 11.911590045263784 2.116556116077219 0 0 0
180 3 4 21.846168551184114 13.89850574644782 1.9760375312053828 0 0 0
678 2 -2 21.846168551184057 11.91159004526382 6.184204454359775 0 0 0
680 3 4 21.846168551184185 13.8985057464477 6.043685869487911 0 0 0
184 2 -2 23.8330842523681 13.898505746447846 2.116556116077216 0 0 0
684 2 -2 23.8330842523681 13.898505746447858 6.184204454359767 0 0 0
635 3 4 25.819999953552173 9.924674344079744 6.043685869487916 0 0 0
132 2 -2 25.81999995355217 9.924674344079735 0.13094450501996224 0 0 0
639 2 -2 27.80691565473625 9.924674344079735 6.184204454359773 0 0 0
137 2 -2 29.793831355920272 9.924674344079735 0.1309445050199556 0 0 0
139 2 -2 27.806915654736226 9.924674344079735 2.1165561160772097 0 0 0
182 2 -2 25.81999995355217 13.89850574644785 0.13094450501998314 0 0 0
682 2 -2 25.819999953552216 13.89850574644786 4.198592843302603 0 0 0
186 1 2 27.80691565473621 11.911590045263768 0.008139281080631803 0 0 0
686 1 2 27.806915654736294 11.91159004526376 4.075787619363142 0 0 0
183 2 -2 25.819999953552156 11.911590045263784 2.116556116077213 0 0 0
185 3 4 25.819999953552117 13.89850574644782 1.9760375312053995 0 0 0
683 2 -2 25.819999953552173 11.91159004526381 6.184204454359767 0 0 0
685 3 4 25.819999953552156 13.898505746447702 6.0436858694879305 0 0 0
189 2 -2 27.806915654736226 13.898505746447846 2.1165561160772124 0 0 0
689 2 -2 27.806915654736233 13.898505746447858 6.184204454359767 0 0 0
187 2 -2 29.793831355920272 13.898505746447846 0.13094450501996166 0 0 0
188 2 -2 29.793831355920272 11.911590045263784 2.1165561160772044 0 0 0
688 2 -2 29.793831355920272 11.91159004526381 6.1842044543597625 0 0 0
687 2 -2 29.793831355920332 13.89850574644786 4.198592843302582 0 0 0
640 3 4 29.793831355920435 9.924674344079735 6.043685869487943 0 0 0
644 2 -2 31.7807470571042 9.924674344079735 6.184204454359773 0 0 0
645 3 4 33.76766275828836 9.924674344079735 6.043685869487907 0 0 0
142 2 -2 33.76766275828836 9.92467434407974 0.13094450501997038 0 0 0
642 2 -2 33.767662758288395 9.92467434407973 4.198592843302607 0 0 0
190 3 4 29.7938313559204 13.898505746447826 1.9760375312054321 0 0 0
690 3 4 29.793831355920418 13.898505746447713 6.04368586948796 0 0 0
144 2 -2 31.780747057104183 9.924674344079735 2.1165561160772066 0 0 0
191 1 2 31.780747057104364 11.911590045263765 0.008139281080632381 0 0 0
192 2 -2 33.767662758288374 13.898505746447855 0.13094450501997604 0 0 0
691 1 2 31.780747057104442 11.91159004526376 4.075787619363142 0 0 0
692 2 -2 33.767662758288395 13.898505746447869 4.198592843302603 0 0 0
193 2 -2 33.767662758288374 11.911590045263791 2.1165561160772137 0 0 0
194 2 -2 31.780747057104183 13.898505746447846 2.1165561160772075 0 0 0
195 3 4 33.767662758288466 13.89850574644782 1.9760375312053913 0 0 0
693 2 -2 33.767662758288274 11.91159004526381 6.184204454359775 0 0 0
694 2 -2 31.780747057104218 13.898505746447858 6.1842044543597625 0 0 0
695 3 4 33.767662758288346 13.898505746447702 6.043685869487916 0 0 0
650 3 4 37.741494160656245 9.924674344079735 6.043685869487857 0 0 0
649 2 -2 35.75457845947235 9.924674344079735 6.184204454359792 0 0 0
147 2 -2 37.741494160656494 9.924674344079735 0.1309445050199862 0 0 0
151 1 2 39.728409861840525 11.911590045263763 0.008139281080608294 -1 0 0
651 1 2 39.72840986184051 11.91159004526376 4.075787619363117 -1 0 0
149 2 -2 35.754578459472455 9.924674344079735 2.116556116077217 0 0 0
196 1 2 35.75457845947244 11.911590045263763 0.00813928108062153 0 0 0
197 2 -2 37.741494160656494 13.898505746447846 0.13094450502000715 0 0 0
696 1 2 35.75457845947242 11.91159004526376 4.07578761936313 0 0 0
697 2 -2 37.74149416065652 13.89850574644786 4.198592843302611 0 0 0
198 2 -2 37.741494160656494 11.911590045263793 2.1165561160772253 0 0 0
199 2 -2 35.754578459472455 13.898505746447846 2.116556116077219 0 0 0
200 3 4 37.74149416065638 13.898505746447809 1.976037531205374 0 0 0
698 2 -2 37.74149416065641 11.91159004526381 6.184204454359792 0 0 0
699 2 -2 35.75457845947235 13.898505746447858 6.184204454359779 0 0 0
700 3 4 37.741494160656245 13.898505746447702 6.043685869487895 0 0 0
202 2 -2 1.9770115393435213 17.872337148815955 0.13094450502002813 0 0 0
702 2 -2 1.977011539343527 17.872337148815983 4.198592843302652 0 0 0
206 1 2 3.9639272405275663 15.885421447631867 0.008139281080604117 0 0 0
706 1 2 3.963927240527571 15.885421447631863 4.075787619363109 0 0 0
203 2 -2 1.977011539343526 15.885421447631915 2.1165561160772346 0 0 0
205 3 4 1.9770115393435272 17.87233714881587 1.9760375312053273 0 0 0
703 2 -2 1.9770115393435364 15.88542144763207 6.184204454359792 0 0 0
705 3 4 1.9770115393435157 17.87233714881585 6.043685869487889 0 0 0
209 2 -2 3.9639272405275165 17.872337148815916 2.1165561160772355 0 0 0
709 2 -2 3.963927240527516 17.87233714881596 6.184204454359792 0 0 0
204 2 -2 -0.00990416184045062 17.872337148815916 2.116556116077241 0 0 0
704 2 -2 -0.009904161840425566 17.87233714881596 6.184204454359792 0 0 0
253 2 -2 1.9770115393435228 19.859252849999937 2.1165561160772386 0 0 0
753 2 -2 1.9770115393435332 19.85925284999994 6.184204454359792 0 0 0
207 2 -2 5.950842941711626 17.872337148815955 0.13094450502001703 0 0 0
707 2 -2 5.9508429417116115 17.872337148815976 4.198592843302664 0 0 0
211 1 2 7.93775864289567 15.885421447631867 0.008139281080609103 0 0 0
711 1 2 7.937758642895663 15.885421447631863 4.075787619363113 0 0 0
208 2 -2 5.950842941711626 15.885421447631904 2.1165561160772315 0 0 0
210 3 4 5.9508429417116355 17.87233714881587 1.9760375312053313 0 0 0
708 2 -2 5.950842941711608 15.88542144763206 6.184204454359787 0 0 0
710 3 4 5.950842941711666 17.87233714881586 6.043685869487869 0 0 0
214 2 -2 7.93775864289568 17.872337148815916 2.1165561160772324 0 0 0
714 2 -2 7.937758642895641 17.87233714881596 6.184204454359786 0 0 0
212 2 -2 9.924674344079717 17.872337148815955 0.13094450502000415 0 0 0
215 3 4 9.924674344079705 17.87233714881587 1.9760375312053429 0 0 0
712 2 -2 9.924674344079692 17.872337148815983 4.198592843302652 0 0 0
713 2 -2 9.92467434407972 15.88542144763207 6.184204454359779 0 0 0
261 1 2 7.937758642895665 19.859252849999994 0.008139281080605625 0 0 0
258 2 -2 5.950842941711626 19.859252849999937 2.1165561160772377 0 0 0
263 2 -2 9.924674344079717 19.859252849999937 2.1165561160772324 0 0 0
758 2 -2 5.950842941711612 19.85925284999995 6.184204454359787 0 0 0
763 2 -2 9.924674344079712 19.85925284999995 6.184204454359779 0 0 0
715 3 4 9.924674344079776 17.87233714881585 6.043685869487895 0 0 0
213 2 -2 9.924674344079758 15.885421447631904 2.1165561160772284 0 0 0
216 1 2 11.911590045263786 15.885421447631867 0.008139281080616899 0 0 0
217 2 -2 13.898505746447832 17.872337148815955 0.13094450502000285 0 0 0
716 1 2 11.911590045263793 15.885421447631863 4.075787619363119 0 0 0
717 2 -2 13.898505746447816 17.872337148815976 4.198592843302626 0 0 0
218 2 -2 13.898505746447865 15.885421447631895 2.1165561160772253 0 0 0
219 2 -2 11.91159004526377 17.872337148815916 2.1165561160772284 0 0 0
220 3 4 13.89850574644793 17.87233714881587 1.976037531205348 0 0 0