LAMMPS data file via write_data, version 29 Aug 2024, timestep = 22, units = metal

4999 atoms
3 atom types

-0.015252552462855493 39.73375825246285 xlo xhi
-0.015987100410436866 39.73449280041043 ylo yhi
0.024590083081435295 40.668035616918566 zlo zhi
-7.719721893518428e-11 3.486569283912249e-09 -6.144639655452128e-10 xy xz yz

Masses

1 137.327
2 15.999
3 47.867

Atoms # charge

2 2 -2 1.9720820668141994 1.9715939654335373 0.14677626448281245 0 0 0
502 2 -2 1.9718524678891771 1.971772606938751 4.212076488319698 0 0 0
556 1 2 3.9605814158513755 3.958486272361714 4.086926562745304 0 0 0
5 3 4 1.9729538872160752 1.9710480933713364 1.9899874365655814 0 0 0
505 3 4 1.97422811146588 1.9698365705920213 6.054489005394675 0 0 0
53 2 -2 1.9718732997856483 3.9596970036374732 2.132812499849479 0 0 0
553 2 -2 1.971270035758749 3.961405385126133 6.197067498835403 0 0 0
9 2 -2 3.95893413026923 1.9716777977710416 2.132394507802233 0 0 0
509 2 -2 3.957860507528493 1.9719950965843644 6.196648881299747 0 0 0
551 1 2 -0.014780521702581581 3.9582478866856454 4.086358656140018 0 0 0
1056 1 2 3.961506424017883 3.9578924545256653 8.152171745776007 0 0 0
1051 1 2 -0.013670634514409077 3.956687997272958 8.150988745320225 0 0 0
1246 1 2 35.74062373591154 15.882436834178984 8.143959849514031 0 0 0
704 2 -2 39.71992790715179 17.873471936265055 6.216939698326933 -1 0 0
746 1 2 35.75429081955839 15.881195466493349 4.086939935006072 0 0 0
747 2 -2 37.746307712344326 17.880196684813637 4.199210385932465 0 0 0
7 2 -2 5.946954939856887 1.971572647480568 0.14683415984409154 0 0 0
507 2 -2 5.946656516398941 1.9716954756009746 4.2118953773829535 0 0 0
561 1 2 7.935264535613136 3.958725812863042 4.087475029853854 0 0 0
10 3 4 5.948190952352715 1.9711658497017688 1.9903554601097004 0 0 0
510 3 4 5.949586947544452 1.9704963552099697 6.055081944333353 0 0 0
58 2 -2 5.946631565616676 3.9595507333159854 2.1324795775378327 0 0 0
558 2 -2 5.945850697534599 3.9605226818915877 6.19668987778352 0 0 0
14 2 -2 7.933765375848265 1.9716566746405304 2.1322578778285353 0 0 0
514 2 -2 7.932828140629008 1.9718783514893994 6.196485293751276 0 0 0
12 2 -2 9.921885091389772 1.9715586175084558 0.1468685452342105 0 0 0
563 2 -2 9.921058502726916 3.960045947493932 6.196435948789094 0 0 0
63 2 -2 9.9216072585055 3.9594715559185754 2.1322385204289946 0 0 0
512 2 -2 9.921662205478174 1.97163787743627 4.211754045753831 0 0 0
1061 1 2 7.935683218711001 3.958492284868712 8.152710341021773 0 0 0
248 2 -2 37.746307712260396 15.88419304346289 2.136252495417858 0 0 0
249 2 -2 35.757863732481205 17.872304621316232 2.1363477446417556 0 0 0
15 3 4 9.922936333807318 1.9712408082177124 1.9905982825432023 0 0 0
515 3 4 9.923964964705737 1.9708552603072733 6.055351876966666 0 0 0
17 2 -2 13.896841026584028 1.9715603222271305 0.1468794879580138 0 0 0
517 2 -2 13.89673087809919 1.9716170703416815 4.211665515122454 0 0 0
566 1 2 11.90984203276978 3.958810019614114 4.0877723411477795 0 0 0
19 2 -2 11.908883144953043 1.971637987441599 2.1321533841033533 0 0 0
20 3 4 13.897425678422655 1.9712803747194234 1.9907108039451131 0 0 0
519 2 -2 11.908305841641523 1.9717806531947375 6.196323208778948 0 0 0
520 3 4 13.89795345028591 1.971003776144858 6.055453561783402 0 0 0
68 2 -2 13.896691643836991 3.959439290370444 2.132127367079309 0 0 0
568 2 -2 13.896437063727523 3.9598424255418925 6.1962928092118394 0 0 0
1066 1 2 11.910061607770842 3.9586521366448584 8.152899438535979 0 0 0
250 3 4 37.74630771183729 17.873241481732943 1.9903803922547867 0 0 0
748 2 -2 37.74630771181594 15.905149362558928 6.218706292292297 0 0 0
22 2 -2 17.87180230979993 1.971562996747861 0.14687867828885193 0 0 0
522 2 -2 17.87180231021189 1.9716124144821827 4.211633637262974 0 0 0
571 1 2 15.884485154769331 3.958815891784781 4.087887586621802 0 0 0
24 2 -2 15.88414772079059 1.9716323840394407 2.132106687922251 0 0 0
25 3 4 17.8718023095562 1.9712913585690537 1.9907402627419137 0 0 0
524 2 -2 15.883952997525775 1.971741661411176 6.1962601721526065 0 0 0
525 3 4 17.8718023102512 1.9710505891340073 6.0554820886939895 0 0 0
73 2 -2 17.87180231001001 3.959426162766633 2.1320944979145993 0 0 0
573 2 -2 17.871802310384748 3.959781113658863 6.196254418386252 0 0 0
576 1 2 19.85911946524167 3.9588158918505245 4.0878875865768185 0 0 0
1071 1 2 15.884555145562016 3.9586903608046384 8.152984819267031 0 0 0
1076 1 2 19.859049475213443 3.9586903609777297 8.152984819171143 0 0 0
749 2 -2 35.77268752227215 17.873471932726627 6.216939692208303 0 0 0
750 3 4 37.746307711141505 17.869816986777426 6.028603156572244 0 0 0
247 2 -2 37.74630771152092 17.87243831382755 0.1448785339233635 0 0 0
1241 1 2 31.780044621273326 15.877857320604043 8.146218092384744 0 0 0
29 2 -2 19.859456899636815 1.9716323839429777 2.1321066879592028 0 0 0
529 2 -2 19.859651623463805 1.9717416625356408 6.196260172207133 0 0 0
27 2 -2 21.846763593175762 1.971560322117605 0.1468794877831018 0 0 0
527 2 -2 21.846873742140957 1.9716170700719384 4.211665515076027 0 0 0
581 1 2 23.833762587238283 3.9588100198400977 4.087772341400881 0 0 0
30 3 4 21.846178940863467 1.9712803752085613 1.9907108046659203 0 0 0
530 3 4 21.84565117024518 1.9710037766133979 6.055453561759223 0 0 0
78 2 -2 21.846912976338007 3.9594392899183357 2.1321273670014995 0 0 0
578 2 -2 21.847167556835263 3.9598424249918858 6.196292809244383 0 0 0
34 2 -2 23.834721475499677 1.9716379871696665 2.132153383826335 0 0 0
534 2 -2 23.835298778573353 1.97178065315303 6.1963232088085425 0 0 0
1081 1 2 23.83354301340452 3.958652136887473 8.152899438624418 0 0 0
237 2 -2 29.797007526652983 17.87171937533028 0.146568219516736 0 0 0
238 2 -2 29.796914176450294 15.884566926225181 2.1323660514126996 0 0 0
32 2 -2 25.821719528506502 1.9715586172368598 0.1468685450838086 0 0 0
532 2 -2 25.821942414739418 1.9716378772024754 4.211754044590497 0 0 0
586 1 2 27.808340083691927 3.9587258138973054 4.087475031199078 0 0 0
35 3 4 25.82066828508653 1.9712408089215596 1.990598283479452 0 0 0
535 3 4 25.819639657369525 1.9708552609209853 6.055351877831446 0 0 0
83 2 -2 25.821997361592597 3.959471554156791 2.1322385203857825 0 0 0
583 2 -2 25.822546117408702 3.960045946438986 6.196435948337967 0 0 0
39 2 -2 27.80983924640132 1.9716566742583934 2.1322578774711065 0 0 0
539 2 -2 27.810776455117644 1.9718783514406915 6.196485292583522 0 0 0
40 3 4 29.79541366700683 1.971165851746302 1.9903554652955662 0 0 0
540 3 4 29.794017698913102 1.9704963559776807 6.0550819165970555 0 0 0
1086 1 2 27.807921402742387 3.9584922849107236 8.152710341423939 0 0 0
745 3 4 33.76771464192414 17.865096579248405 6.062767967180605 0 0 0
737 2 -2 29.799687544406208 17.872070236510936 4.211150174426738 0 0 0
37 2 -2 29.796649679841813 1.9715726470382366 0.1468341626024516 0 0 0
88 2 -2 29.796973054280716 3.9595507307823974 2.132479577120735 0 0 0
537 2 -2 29.796948100398524 1.9716954691286588 4.211895404772058 0 0 0
588 2 -2 29.797753922964787 3.9605226805064007 6.1966898749415895 0 0 0
42 2 -2 33.77152255095465 1.9715939650916905 0.14677626486768025 0 0 0
542 2 -2 33.77175214750054 1.9717726104147673 4.212076482405282 0 0 0
591 1 2 31.783023208140225 3.9584862778947225 4.086926560921814 0 0 0
44 2 -2 31.78467049359974 1.97167779717189 2.1323945136460627 0 0 0
45 3 4 33.77065073308545 1.9710480967801352 1.9899874374181719 0 0 0
544 2 -2 31.78574411629049 1.9719950966225541 6.196648881770216 0 0 0
545 3 4 33.76937650786173 1.969836569007527 6.054489012182853 0 0 0
93 2 -2 33.77173131991927 3.9596969981038432 2.1328125008617724 0 0 0
593 2 -2 33.77233458497128 3.961405383769271 6.197067494375612 0 0 0
1091 1 2 31.782098196272155 3.9578924542130407 8.152171745932915 0 0 0
243 2 -2 33.77212765419066 15.88544671535389 2.1343269409210337 0 0 0
245 3 4 33.76943643362304 17.869898132061056 1.98826218550647 0 0 0
4 2 -2 39.73349489986523 1.9716677905856226 2.1324720441346336 -1 0 0
504 2 -2 39.73293967056957 1.9720181707290831 6.196490446573862 -1 0 0
47 2 -2 37.746307711798416 1.971597654515113 0.14671765977034215 0 0 0
547 2 -2 37.74630771241096 1.9717974800182962 4.212238121355888 0 0 0
596 1 2 35.75838514219446 3.958247886828745 4.086358656522121 0 0 0
49 2 -2 35.75912052365403 1.9716677903507918 2.132472043901895 0 0 0
50 3 4 37.74630771413683 1.9711384641251908 1.9897607072055323 0 0 0
549 2 -2 35.759675755349285 1.9720181706447537 6.1964904462698085 0 0 0
550 3 4 37.74630771250407 1.96923467820338 6.054098508356637 0 0 0
98 2 -2 37.74630771209135 3.9596202729782264 2.132957114300347 0 0 0
598 2 -2 37.74630771200427 3.9621322752545907 6.197229125710593 0 0 0
1096 1 2 35.757275254806615 3.9566879973740825 8.150988744928856 0 0 0
743 2 -2 33.77532633134493 15.888324135335587 6.201120039013532 0 0 0
744 2 -2 31.793569117573487 17.875183231878253 6.203702019183056 0 0 0
52 2 -2 1.9720787209414234 5.946704447582845 0.14670097616351824 0 0 0
552 2 -2 1.9718134620171877 5.947138325603832 4.212146028187532 0 0 0
606 1 2 3.9608912767468007 7.933295405029916 4.086515770515933 0 0 0
55 3 4 1.9730370265668815 5.945294200400859 1.9899964009046134 0 0 0
555 3 4 1.974621640124848 5.941421243970232 6.054369459485748 0 0 0
103 2 -2 1.9718866156862735 7.935210890449531 2.132827620921946 0 0 0
603 2 -2 1.9709620611272503 7.9386841563100905 6.19738310550567 0 0 0
59 2 -2 3.958938538809981 5.9468893285401 2.1324130985561163 0 0 0
559 2 -2 3.957405574114114 5.947847732307393 6.1967662251452245 0 0 0
105 3 4 1.9726578563158217 9.919951746635686 1.9903496429207472 0 0 0
601 1 2 -0.014816495561653832 7.933122830389189 4.0857798797022395 0 0 0
605 3 4 1.9758487521655934 9.912442740162849 6.054067582282327 0 0 0
1106 1 2 3.9622763048592415 7.932445875344914 8.151902794222023 0 0 0
1101 1 2 -0.01267458986866858 7.930381985244119 8.14945443200789 0 0 0
57 2 -2 5.946960832588932 5.946686430819867 0.14674809589205773 0 0 0
557 2 -2 5.9466451551820585 5.946963830969722 4.2119062989839255 0 0 0
611 1 2 7.935334722454739 7.933487512245777 4.087334623010141 0 0 0
60 3 4 5.948349572857362 5.945566989383907 1.9902843922413516 0 0 0
560 3 4 5.949977587628094 5.943645959164536 6.055031082622058 0 0 0
108 2 -2 5.946681889323041 7.934908405521243 2.132486960536693 0 0 0
608 2 -2 5.945566433459605 7.936906700932314 6.196856452077696 0 0 0
64 2 -2 7.933720331494288 5.9469223923625885 2.1323291325854443 0 0 0
564 2 -2 7.932466441030415 5.947590846925447 6.196609814944233 0 0 0
110 3 4 5.948640964229225 9.920233453960783 1.9900885972775308 0 0 0
562 2 -2 9.921601745964438 5.946899664045449 4.2118101654543105 0 0 0
62 2 -2 9.921879558917361 5.946664945985595 0.14683096157154 0 0 0
613 2 -2 9.920819102696216 7.935983076852396 6.196579586685561 0 0 0
113 2 -2 9.921565199577422 7.934817886088055 2.1323117924552086 0 0 0
610 3 4 5.9508095227134445 9.917316840117364 6.0552742067226095 0 0 0
1111 1 2 7.935752884095957 7.933127694704454 8.152621925225548 0 0 0
65 3 4 9.92303688771 5.945778316715174 1.990550892677108 0 0 0
115 3 4 9.92322928284655 9.920501257466224 1.990390430506009 0 0 0
565 3 4 9.924281843980985 5.944692257261571 6.055340913571858 0 0 0
67 2 -2 13.89684515593699 5.946657881649237 0.1468669454313867 0 0 0
567 2 -2 13.896703973833441 5.946834272308839 4.211717471132054 0 0 0
616 1 2 11.909891361234155 7.933560402642996 4.08758730183194 0 0 0
69 2 -2 11.908846364749385 5.946885174516574 2.132223546651784 0 0 0
70 3 4 13.897482673883863 5.945867828741417 1.9906492100070292 0 0 0
569 2 -2 11.908113953367996 5.947335974793285 6.196421106616474 0 0 0
570 3 4 13.898143384420711 5.945058211461262 6.055391676041211 0 0 0
118 2 -2 13.89666468660647 7.934768348260092 2.13220310644457 0 0 0
618 2 -2 13.896305075866342 7.935565320909882 6.196408551158358 0 0 0
120 3 4 13.897594644594976 9.92062762832953 1.9904818273906244 0 0 0
615 3 4 9.925093117376191 9.918894233849425 6.055162117382063 0 0 0
620 3 4 13.898598557227302 9.919378404200284 6.055216405833229 0 0 0
1116 1 2 11.910185203627742 7.933216807703434 8.15275624276073 0 0 0
72 2 -2 17.871802309587927 5.946661115424198 0.14687756182546854 0 0 0
572 2 -2 17.871802310187636 5.946811756074288 4.2116911197957405 0 0 0
621 1 2 15.884505267674692 7.933615900399548 4.087701138824055 0 0 0
74 2 -2 15.884134720731698 5.946859102586428 2.1321707431935053 0 0 0
75 3 4 17.87180230988596 5.945906156390242 1.9906763036776598 0 0 0
574 2 -2 15.883889729145148 5.947201631677753 6.196336890599875 0 0 0
575 3 4 17.87180231017733 5.945197853192666 6.055423197698136 0 0 0
123 2 -2 17.871802309972075 7.934745138804078 2.132161630242115 0 0 0
623 2 -2 17.87180231039267 7.935435659397136 6.1963565573010575 0 0 0
125 3 4 17.87180230983589 9.920695388186997 1.9905167331386513 0 0 0
626 1 2 19.859099352433958 7.933615900357047 4.087701138788851 0 0 0
625 3 4 17.871802310458737 9.919597495056472 6.055249284978078 0 0 0
1121 1 2 15.884604277190304 7.933340168451432 8.152858653502102 0 0 0
1126 1 2 19.859000343616167 7.933340168507524 8.152858653395603 0 0 0
79 2 -2 19.85946989946905 5.946859102565766 2.132170743922111 0 0 0
579 2 -2 19.85971489115912 5.94720163167681 6.196336890606274 0 0 0
77 2 -2 21.846759463667844 5.946657881453303 0.14686694523190796 0 0 0
577 2 -2 21.846900646522716 5.946834272394116 4.211717471128151 0 0 0
631 1 2 23.8337132586103 7.933560402384044 4.08758730193656 0 0 0
80 3 4 21.846121945845905 5.945867829275445 1.9906492101943074 0 0 0
580 3 4 21.845461236563636 5.945058212196538 6.055391676116439 0 0 0
128 2 -2 21.846939934221055 7.934768347900009 2.1322031066875398 0 0 0
628 2 -2 21.847299544566187 7.9355653202151935 6.1964085509783855 0 0 0
84 2 -2 23.83475825513876 5.946885175261574 2.132223546602248 0 0 0
584 2 -2 23.835490666526134 5.947335974844869 6.1964211064231245 0 0 0
130 3 4 21.84600997537039 9.920627628815868 1.9904818274564149 0 0 0
630 3 4 21.845006064917257 9.919378404406766 6.055216406340242 0 0 0
1131 1 2 23.833419420678833 7.933216811242488 8.15275624019636 0 0 0
82 2 -2 25.82172506070773 5.9466649455464395 0.14683096104537435 0 0 0
582 2 -2 25.822002874268936 5.946899663610403 4.211810164704679 0 0 0
636 1 2 27.80826989902113 7.933487511904468 4.087334623962154 0 0 0
85 3 4 25.82056773226835 5.945778317797583 1.9905508933352463 0 0 0
585 3 4 25.81932277731299 5.944692259346368 6.055340915344038 0 0 0
133 2 -2 25.822039422126778 7.9348178840633725 2.132311792899534 0 0 0
633 2 -2 25.82278551754489 7.9359830764364405 6.196579584718466 0 0 0
89 2 -2 27.809884288106595 5.946922392038803 2.1323291323988 0 0 0
589 2 -2 27.81113817906822 5.947590846719729 6.196609814231929 0 0 0
135 3 4 25.820375337787006 9.920501257158273 1.9903904279396334 0 0 0
90 3 4 29.795255047088226 5.945566992443452 1.990284393451722 0 0 0
590 3 4 29.793627033036348 5.9436459602083 6.0550310836163606 0 0 0
140 3 4 29.794963657409212 9.920233454883691 1.9900885995681918 0 0 0
635 3 4 25.818511508598263 9.918894234151443 6.055162098399945 0 0 0
640 3 4 29.792795092438396 9.917316841278279 6.055274206774229 0 0 0
1136 1 2 27.807851740648413 7.933127698600051 8.152621925768578 0 0 0
87 2 -2 29.79664378711958 5.946686430175575 0.14674809543323378 0 0 0
138 2 -2 29.796922730609353 7.934908403570132 2.132486960315163 0 0 0
587 2 -2 29.796959464846054 5.946963829557078 4.2119062987354905 0 0 0
638 2 -2 29.79803818731249 7.936906699149512 6.196856451716122 0 0 0
92 2 -2 33.77152589837152 5.946704447216321 0.1467009756381065 0 0 0
592 2 -2 33.771791158107966 5.9471383251499 4.212146027918921 0 0 0
641 1 2 31.78271334336026 7.9332954049787805 4.086515771482637 0 0 0
94 2 -2 31.78466608094473 5.9468893281986706 2.132413098237221 0 0 0
95 3 4 33.77056759334035 5.94529420442025 1.9899964015643827 0 0 0
594 2 -2 31.786199047050598 5.947847732246184 6.196766224637803 0 0 0
595 3 4 33.768982980197435 5.941421242691317 6.05436945883098 0 0 0
143 2 -2 33.771718002949335 7.935210891650973 2.132827620671959 0 0 0
643 2 -2 33.77264255964326 7.938684155064023 6.197383104618765 0 0 0
145 3 4 33.77094676173439 9.919951750912983 1.9903496463902848 0 0 0
645 3 4 33.76775586634176 9.91244274135246 6.054067582098368 0 0 0
1141 1 2 31.781328315613052 7.932445875535297 8.151902794525974 0 0 0
54 2 -2 39.73351541704193 5.9468156008168656 2.132460096773079 -1 0 0
554 2 -2 39.73285188573854 5.947847473216137 6.196175425017687 -1 0 0
97 2 -2 37.74630771204903 5.946705146724859 0.14660772109021164 0 0 0
597 2 -2 37.74630771249969 5.9471115348534935 4.212346130184546 0 0 0
646 1 2 35.75842111556878 7.933122830598857 4.085779879903063 0 0 0
99 2 -2 35.7591000079531 5.946815600523264 2.1324600966532627 0 0 0
100 3 4 37.746307712259 5.945728982423702 1.9897774008462812 0 0 0
599 2 -2 35.759763540783965 5.947847473276055 6.196175424815184 0 0 0
600 3 4 37.74630771244096 5.939591546164145 6.054121370564508 0 0 0
148 2 -2 37.74630771225111 7.93497135554548 2.1329576896761377 0 0 0
648 2 -2 37.746307712741526 7.9403207439355645 6.197207747459285 0 0 0
150 3 4 37.74630771161053 9.921493527737011 1.9906880394149682 0 0 0
650 3 4 37.74630771154091 9.910161286689108 6.0541136615341635 0 0 0
1146 1 2 35.75627921051365 7.930381985078419 8.149454431915265 0 0 0
147 2 -2 37.74630771558101 9.921544934595401 0.14663751527329594 0 0 0
602 2 -2 1.971830244710723 9.922686554996586 4.212014788418275 0 0 0
609 2 -2 3.95627678071314 9.924069049872328 6.197102993297699 0 0 0
102 2 -2 1.972125975472547 9.92162370968226 0.14657262401809412 0 0 0
109 2 -2 3.95894257688289 9.92190549209729 2.132383023098753 0 0 0
152 2 -2 1.9723544566198254 13.896641670445034 0.14517972317197106 0 0 0
652 2 -2 1.970550254928728 13.898173056736791 4.209537592668164 0 0 0
656 1 2 3.9621216075593093 11.90715830789636 4.084997289633498 0 0 0
153 2 -2 1.9718960947857964 11.910532257036985 2.1327983323424533 0 0 0
155 3 4 1.973017863308422 13.893893827334947 1.9895149720710021 0 0 0
653 2 -2 1.9698740275560656 11.915134396823587 6.198679526849778 0 0 0
655 3 4 1.9812079523102626 13.883260632485571 6.051165569562252 0 0 0
159 2 -2 3.958620917264594 13.89703151618817 2.1324662881417638 0 0 0
659 2 -2 3.9545169422846937 13.899648433450974 6.1992027528324805 0 0 0
651 1 2 -0.014790301282784211 11.909806673580073 4.088366678391475 0 0 0
1156 1 2 3.960595728069466 11.908486700887018 8.15140947057434 0 0 0
1151 1 2 -0.007715403575982191 11.906328248862502 8.14379868655359 0 0 0
154 2 -2 -0.015174068500767966 13.897381623249272 2.1331710341216183 0 0 0
607 2 -2 5.946686779731275 9.922033951609759 4.21203415350798 0 0 0
614 2 -2 7.931670903748563 9.923104297286482 6.196852359658774 0 0 0
612 2 -2 9.921553670110825 9.922021227631518 4.211853141574589 0 0 0
107 2 -2 5.947075259507724 9.92160296391674 0.14648330343492033 0 0 0
114 2 -2 7.933665695145856 9.92195629012348 2.1324080172975517 0 0 0
157 2 -2 5.947093547237147 13.896561449616087 0.14634327915565876 0 0 0
657 2 -2 5.946285087403217 13.897153369031539 4.211808865297072 0 0 0
661 1 2 7.935454456309342 11.90812254460453 4.086616844000803 0 0 0
158 2 -2 5.946808950812673 11.909819564228364 2.1323891891055844 0 0 0
160 3 4 5.9485060201310525 13.895965542385717 1.9903422255149863 0 0 0
658 2 -2 5.9447347169062645 11.912827802362356 6.197251853219055 0 0 0
660 3 4 5.954963961982233 13.890841114762667 6.0547005691914295 0 0 0
164 2 -2 7.933506601242679 13.896916031584311 2.132667576312876 0 0 0
664 2 -2 7.930360846739547 13.898212548705867 6.197092079280887 0 0 0
162 2 -2 9.921942830461088 13.89671131151457 0.1466412604920861 0 0 0
163 2 -2 9.921616020178456 11.909871263382824 2.1323474157013735 0 0 0
663 2 -2 9.920542547271651 11.911493458952407 6.1967221401708725 0 0 0
662 2 -2 9.921418013850982 13.897095439062166 4.211947137594371 0 0 0
112 2 -2 9.921866260510878 9.92173872797012 0.14674432131538864 0 0 0
1161 1 2 7.936088047035944 11.90698444614304 8.152175090140396 0 0 0
617 2 -2 13.896634539051089 9.922007539885568 4.211813233732675 0 0 0
619 2 -2 11.907638266173741 9.92277536670148 6.196615207553874 0 0 0
165 3 4 9.92337605148227 13.895667936907943 1.9902493682968274 0 0 0
665 3 4 9.927229505155774 13.8938752521212 6.0546287683958075 0 0 0
117 2 -2 13.89683171719882 9.921748026646558 0.14682848164986506 0 0 0
119 2 -2 11.908772828650388 9.922044047115444 2.132388204877396 0 0 0
167 2 -2 13.896815503377734 13.896788156432272 0.14676193686282243 0 0 0
666 1 2 11.91007691592784 11.908312692357528 4.087135782396728 0 0 0
667 2 -2 13.896542752531465 13.897051792615633 4.211937700277797 0 0 0
168 2 -2 13.896641567611933 11.909871744028322 2.1323052225802623 0 0 0
169 2 -2 11.908637103076213 13.897019880762484 2.1326420257365277 0 0 0
170 3 4 13.89774797571622 13.89576946671028 1.990199268740892 0 0 0
668 2 -2 13.89614642771943 11.910941353556415 6.196553026320779 0 0 0
669 2 -2 11.90675258158936 13.89776898305195 6.196907391768068 0 0 0
670 3 4 13.899556645360681 13.894371440510467 6.054748315487435 0 0 0
1166 1 2 11.910684807067888 11.907546787092958 8.152350762501593 0 0 0
622 2 -2 17.871802310161815 9.921982262568664 4.211795829979194 0 0 0
624 2 -2 15.88373258136582 9.922592081926295 6.196520242517485 0 0 0
122 2 -2 17.87180231338453 9.921745836202964 0.14685984375266442 0 0 0
124 2 -2 15.884106793994818 9.922026077601444 2.132328707952148 0 0 0
172 2 -2 17.871802309788404 13.896791470362853 0.1468208170327241 0 0 0
671 1 2 15.884594318821485 11.908440284080845 4.087338085677002 0 0 0
672 2 -2 17.871802310358337 13.897037890366072 4.211942099344052 0 0 0
173 2 -2 17.871802309989828 11.909861405053869 2.1322690450416615 0 0 0
174 2 -2 15.884051788210984 13.897048429615205 2.132583377391591 0 0 0
175 3 4 17.871802310180172 13.89582397733133 1.9902476590228217 0 0 0
673 2 -2 17.871802310476074 11.910771389999006 6.196512105080446 0 0 0
674 2 -2 15.88342465498013 13.897634891637898 6.196814358846907 0 0 0
675 3 4 17.871802309975948 13.894628433579115 6.0548503929324395 0 0 0
676 1 2 19.859010301117365 11.908440283855732 4.087338085591963 0 0 0
1171 1 2 15.88481757455873 11.907903957201743 8.152545746270658 0 0 0
1176 1 2 19.85878704630733 11.907903957024068 8.152545746344664 0 0 0
629 2 -2 19.859872038162393 9.922592081967352 6.1965202425704815 0 0 0
627 2 -2 21.84697008124385 9.92200754006328 4.211813233268209 0 0 0
634 2 -2 23.83596635384622 9.922775367019588 6.196615205479568 0 0 0
129 2 -2 19.859497821114278 9.922026077694863 2.1323287044207695 0 0 0
179 2 -2 19.859552831226715 13.897048429973214 2.132583377675484 0 0 0
679 2 -2 19.860179989313433 13.897634893028338 6.196814357048975 0 0 0
127 2 -2 21.846772901937527 9.92174802646673 0.14682848153841374 0 0 0
134 2 -2 23.83483179002015 9.922044049109372 2.132388206835723 0 0 0
177 2 -2 21.846789116123233 13.89678815680354 0.14676193734138704 0 0 0
677 2 -2 21.84706186795317 13.897051792965833 4.211937700388051 0 0 0
681 1 2 23.8335277032955 11.908312692601717 4.08713578271253 0 0 0
178 2 -2 21.846963052411233 11.909871744407708 2.1323052230767217 0 0 0
180 3 4 21.845856643883476 13.89576946643997 1.9901992681591012 0 0 0
678 2 -2 21.84745819284963 11.910941354026217 6.196553026104488 0 0 0
680 3 4 21.84404795137944 13.894371438461004 6.0547483176727654 0 0 0
184 2 -2 23.83496751884244 13.897019881114185 2.1326420248547002 0 0 0
684 2 -2 23.836852037197982 13.897768983624907 6.196907391221576 0 0 0
1181 1 2 23.83291981818802 11.90754678312255 8.152350767949608 0 0 0
632 2 -2 25.822050949817882 9.922021227785462 4.2118531462098305 0 0 0
132 2 -2 25.821738358893686 9.921738727843858 0.14674432209549493 0 0 0
639 2 -2 27.81193371544935 9.923104297513571 6.196852356253056 0 0 0
139 2 -2 27.80993892187482 9.921956290067403 2.1324080190519075 0 0 0
182 2 -2 25.82166179151612 13.896711314646826 0.14664120069031594 0 0 0
682 2 -2 25.822186609682333 13.89709543588767 4.211947143044711 0 0 0
686 1 2 27.80815016549242 11.908122544761405 4.086616844228858 0 0 0
183 2 -2 25.82198859947397 11.909871261774768 2.1323474199128314 0 0 0
185 3 4 25.820228574111 13.895667933633291 1.9902493860966333 0 0 0
683 2 -2 25.82306207283283 11.911493458114087 6.196722137980219 0 0 0
685 3 4 25.816375116642693 13.893875249446037 6.054628772822389 0 0 0
189 2 -2 27.81009801728763 13.896916031941272 2.132667578888466 0 0 0
689 2 -2 27.8132437708051 13.89821254914931 6.197092079448484 0 0 0
190 3 4 29.795098603761232 13.8959655425064 1.9903422276903682 0 0 0
690 3 4 29.788640660172504 13.890841114847976 6.054700568841019 0 0 0
1186 1 2 27.807516571745946 11.906984442411353 8.152175088054124 0 0 0
637 2 -2 29.796917840470474 9.922033951769642 4.212034152187503 0 0 0
137 2 -2 29.796529357209764 9.921602960543886 0.14648330229039694 0 0 0
187 2 -2 29.79651107237947 13.896561451338183 0.14634327737584332 0 0 0
188 2 -2 29.796795669281664 11.909819563418248 2.1323891886371005 0 0 0
688 2 -2 29.798869903569262 11.91282780106395 6.197251852874854 0 0 0
687 2 -2 29.797319531489766 13.897153369485418 4.2118088626072625 0 0 0
644 2 -2 31.78732784088542 9.924069049641377 6.1971029932443304 0 0 0
142 2 -2 33.77147864411261 9.921623709757112 0.14657265386336638 0 0 0
642 2 -2 33.77177437559596 9.922686554922556 4.212014788348703 0 0 0
144 2 -2 31.784662043145243 9.921905480204494 2.1323830357564826 0 0 0
192 2 -2 33.77125016304299 13.896641670587432 0.14517973113368718 0 0 0
691 1 2 31.781483007458206 11.907158303391956 4.084997287455097 0 0 0
692 2 -2 33.773054363267626 13.898173051262617 4.209537632322985 0 0 0
193 2 -2 33.77170852505038 11.910532256898508 2.1327983373911037 0 0 0
194 2 -2 31.7849837034957 13.897031516556591 2.132466287638022 0 0 0
195 3 4 33.77058675445561 13.893893834431436 1.9895149306975168 0 0 0
693 2 -2 33.77373059444886 11.91513440085604 6.1986795313917975 0 0 0
694 2 -2 31.789087652043293 13.899648434179536 6.1992027542862775 0 0 0
695 3 4 33.76239669413286 13.883260634907229 6.051165552954762 0 0 0
1191 1 2 31.783008892827663 11.908486703127458 8.151409468709288 0 0 0
604 2 -2 39.73268219599422 9.92514914993698 6.196144510395387 -1 0 0
647 2 -2 37.74630771292709 9.922875546541654 4.212135501487928 0 0 0
104 2 -2 39.733678219779804 9.921858914312041 2.1324228183305234 -1 0 0
654 2 -2 39.731765735760966 13.905029916268635 6.199755305956009 -1 0 0
649 2 -2 35.75993323188046 9.9251491495934 6.196144510371876 0 0 0
149 2 -2 35.75893720662444 9.921858913953159 2.132422817865268 0 0 0
197 2 -2 37.74630771203272 13.896622556504797 0.14505029180029902 0 0 0
696 1 2 35.758394923971125 11.90980667119506 4.088366679387444 0 0 0
697 2 -2 37.74630771163954 13.89568689050486 4.2082902026778015 0 0 0
198 2 -2 37.74630770885528 11.910058793441744 2.1329544874321416 0 0 0
199 2 -2 35.75877869393453 13.89738161983603 2.133171033116037 0 0 0
200 3 4 37.74630771040178 13.896452979351226 1.9900516953072687 0 0 0
698 2 -2 37.74630771315085 11.920498058214276 6.200464970821831 0 0 0
699 2 -2 35.76084969664953 13.905029916535034 6.1997553096690226 0 0 0
700 3 4 37.74630770725871 13.88505033070829 6.052176141730807 0 0 0
1196 1 2 35.75132003209085 11.906328248735113 8.143798690497665 0 0 0
204 2 -2 -0.01425911195233862 17.87230462091745 2.136347743691044 0 0 0
701 1 2 -0.010686195150840568 15.881195462434224 4.086939924022492 0 0 0
202 2 -2 1.9725818948155236 17.87160942506332 0.1442296907227497 0 0 0
702 2 -2 1.9658287837957846 17.874950335824753 4.218048531156141 0 0 0
706 1 2 3.9606605840638 15.882550276411028 4.086210102593643 0 0 0
203 2 -2 1.9714769616801509 15.88544671733472 2.1343269385408834 0 0 0
205 3 4 1.9741681861928821 17.869898112227215 1.9882621793339437 0 0 0
703 2 -2 1.9682782911949668 15.888324144236135 6.201120015711774 0 0 0
705 3 4 1.9758899780387589 17.865096584047674 6.062767966906883 0 0 0
209 2 -2 3.9576617526138014 17.872111413224438 2.1343725813116925 0 0 0
709 2 -2 3.950035504257917 17.87518323170931 6.20370201948764 0 0 0
1201 1 2 0.002980888469374096 15.882436826217067 8.143959859327017 0 0 0
1206 1 2 3.9635600008062095 15.877857319947333 8.1462181006165 0 0 0
244 2 -2 31.785942868153835 17.872111410037743 2.1343725844375645 0 0 0
738 2 -2 29.801345033160842 15.886896688348015 6.197621542202865 0 0 0
242 2 -2 33.77102272438874 17.871609425352354 0.1442296871921768 0 0 0
741 1 2 31.78294402249282 15.882550287452808 4.08621009103473 0 0 0
207 2 -2 5.946597093413653 17.871719370934603 0.1465682264177096 0 0 0
707 2 -2 5.943917075330517 17.872070236014448 4.2111501765797374 0 0 0
711 1 2 7.9350839292726585 15.883440751113334 4.086223004892957 0 0 0
208 2 -2 5.946690442951894 15.884566929565043 2.132366048050113 0 0 0
210 3 4 5.948063879240016 17.871798072685184 1.9910579388144445 0 0 0
708 2 -2 5.942259587157525 15.886896688322276 6.197621542598497 0 0 0
710 3 4 5.956804936656947 17.86822241493057 6.052928148315763 0 0 0
214 2 -2 7.933143740077307 17.87185854521369 2.133177640064309 0 0 0
714 2 -2 7.928769249796303 17.872282323062947 6.19768355021438 0 0 0
212 2 -2 9.922010726169054 17.871720187519887 0.14657275333167424 0 0 0
712 2 -2 9.921209830038165 17.87194656014731 4.21204670371074 0 0 0
713 2 -2 9.920351581282745 15.885773318807598 6.196400921340519 0 0 0
213 2 -2 9.921701039942228 15.884695774915576 2.1324312324334813 0 0 0
1211 1 2 7.937751259049303 15.880972204997668 8.149875374623315 0 0 0
263 2 -2 9.921659778508959 19.859252849200097 2.1325346271674026 0 0 0
742 2 -2 33.77777583694229 17.874950336602367 4.218048529734157 0 0 0
239 2 -2 27.810460878944266 17.871858545437455 2.1331776402751546 0 0 0
215 3 4 9.923325756562157 17.87134157674857 1.990147573109357 0 0 0
715 3 4 9.929343859428489 17.870366266772177 6.054034530323859 0 0 0
217 2 -2 13.89681650726064 17.871769889747263 0.14670011476355385 0 0 0
716 1 2 11.910268953277265 15.883488742801042 4.086555118945692 0 0 0
717 2 -2 13.896494726222391 17.871892439072397 4.2120602129629585 0 0 0
218 2 -2 13.89666374617872 15.884667131161956 2.132383586424562 0 0 0
219 2 -2 11.90853901917252 17.87187681311542 2.1328284522640364 0 0 0
220 3 4 13.897790601747856 17.871361420793118 1.989941662028958 0 0 0
718 2 -2 13.896057469142157 15.885501209329341 6.19651522091505 0 0 0